<?xml version="1.0"?>
<VTKFile type="UnstructuredGrid" version="1.0" byte_order="LittleEndian" compressor="vtkZLibDataCompressor">
  <UnstructuredGrid>
    <Piece NumberOfPoints="81" NumberOfCells="80">
      <Points>
        <DataArray type="Float64" Name="Points" NumberOfComponents="3" format="ascii">
          0.00000e+00 0.00000e+00 0.00000e+00 
          1.25000e-01 0.00000e+00 0.00000e+00 
          2.50000e-01 0.00000e+00 0.00000e+00 
          3.75000e-01 0.00000e+00 0.00000e+00 
          5.00000e-01 0.00000e+00 0.00000e+00 
          6.25000e-01 0.00000e+00 0.00000e+00 
          7.50000e-01 0.00000e+00 0.00000e+00 
          8.75000e-01 0.00000e+00 0.00000e+00 
          1.00000e+00 0.00000e+00 0.00000e+00 
          1.12500e+00 0.00000e+00 0.00000e+00 
          1.25000e+00 0.00000e+00 0.00000e+00 
          1.37500e+00 0.00000e+00 0.00000e+00 
          1.50000e+00 0.00000e+00 0.00000e+00 
          1.62500e+00 0.00000e+00 0.00000e+00 
          1.75000e+00 0.00000e+00 0.00000e+00 
          1.87500e+00 0.00000e+00 0.00000e+00 
          2.00000e+00 0.00000e+00 0.00000e+00 
          2.12500e+00 0.00000e+00 0.00000e+00 
          2.25000e+00 0.00000e+00 0.00000e+00 
          2.37500e+00 0.00000e+00 0.00000e+00 
          2.50000e+00 0.00000e+00 0.00000e+00 
          2.62500e+00 0.00000e+00 0.00000e+00 
          2.75000e+00 0.00000e+00 0.00000e+00 
          2.87500e+00 0.00000e+00 0.00000e+00 
          3.00000e+00 0.00000e+00 0.00000e+00 
          3.12500e+00 0.00000e+00 0.00000e+00 
          3.25000e+00 0.00000e+00 0.00000e+00 
          3.37500e+00 0.00000e+00 0.00000e+00 
          3.50000e+00 0.00000e+00 0.00000e+00 
          3.62500e+00 0.00000e+00 0.00000e+00 
          3.75000e+00 0.00000e+00 0.00000e+00 
          3.87500e+00 0.00000e+00 0.00000e+00 
          4.00000e+00 0.00000e+00 0.00000e+00 
          4.12500e+00 0.00000e+00 0.00000e+00 
          4.25000e+00 0.00000e+00 0.00000e+00 
          4.37500e+00 0.00000e+00 0.00000e+00 
          4.50000e+00 0.00000e+00 0.00000e+00 
          4.62500e+00 0.00000e+00 0.00000e+00 
          4.75000e+00 0.00000e+00 0.00000e+00 
          4.87500e+00 0.00000e+00 0.00000e+00 
          5.00000e+00 0.00000e+00 0.00000e+00 
          5.12500e+00 0.00000e+00 0.00000e+00 
          5.25000e+00 0.00000e+00 0.00000e+00 
          5.37500e+00 0.00000e+00 0.00000e+00 
          5.50000e+00 0.00000e+00 0.00000e+00 
          5.62500e+00 0.00000e+00 0.00000e+00 
          5.75000e+00 0.00000e+00 0.00000e+00 
          5.87500e+00 0.00000e+00 0.00000e+00 
          6.00000e+00 0.00000e+00 0.00000e+00 
          6.12500e+00 0.00000e+00 0.00000e+00 
          6.25000e+00 0.00000e+00 0.00000e+00 
          6.37500e+00 0.00000e+00 0.00000e+00 
          6.50000e+00 0.00000e+00 0.00000e+00 
          6.62500e+00 0.00000e+00 0.00000e+00 
          6.75000e+00 0.00000e+00 0.00000e+00 
          6.87500e+00 0.00000e+00 0.00000e+00 
          7.00000e+00 0.00000e+00 0.00000e+00 
          7.12500e+00 0.00000e+00 0.00000e+00 
          7.25000e+00 0.00000e+00 0.00000e+00 
          7.37500e+00 0.00000e+00 0.00000e+00 
          7.50000e+00 0.00000e+00 0.00000e+00 
          7.62500e+00 0.00000e+00 0.00000e+00 
          7.75000e+00 0.00000e+00 0.00000e+00 
          7.87500e+00 0.00000e+00 0.00000e+00 
          8.00000e+00 0.00000e+00 0.00000e+00 
          8.12500e+00 0.00000e+00 0.00000e+00 
          8.25000e+00 0.00000e+00 0.00000e+00 
          8.37500e+00 0.00000e+00 0.00000e+00 
          8.50000e+00 0.00000e+00 0.00000e+00 
          8.62500e+00 0.00000e+00 0.00000e+00 
          8.75000e+00 0.00000e+00 0.00000e+00 
          8.87500e+00 0.00000e+00 0.00000e+00 
          9.00000e+00 0.00000e+00 0.00000e+00 
          9.12500e+00 0.00000e+00 0.00000e+00 
          9.25000e+00 0.00000e+00 0.00000e+00 
          9.37500e+00 0.00000e+00 0.00000e+00 
          9.50000e+00 0.00000e+00 0.00000e+00 
          9.62500e+00 0.00000e+00 0.00000e+00 
          9.75000e+00 0.00000e+00 0.00000e+00 
          9.87500e+00 0.00000e+00 0.00000e+00 
          1.00000e+01 0.00000e+00 0.00000e+00 
        </DataArray>
      </Points>
      <Cells>
        <DataArray type="Int64" Name="connectivity" format="ascii">
          0 1 
          1 2 
          2 3 
          3 4 
          4 5 
          5 6 
          6 7 
          7 8 
          8 9 
          9 10 
          10 11 
          11 12 
          12 13 
          13 14 
          14 15 
          15 16 
          16 17 
          17 18 
          18 19 
          19 20 
          20 21 
          21 22 
          22 23 
          23 24 
          24 25 
          25 26 
          26 27 
          27 28 
          28 29 
          29 30 
          30 31 
          31 32 
          32 33 
          33 34 
          34 35 
          35 36 
          36 37 
          37 38 
          38 39 
          39 40 
          40 41 
          41 42 
          42 43 
          43 44 
          44 45 
          45 46 
          46 47 
          47 48 
          48 49 
          49 50 
          50 51 
          51 52 
          52 53 
          53 54 
          54 55 
          55 56 
          56 57 
          57 58 
          58 59 
          59 60 
          60 61 
          61 62 
          62 63 
          63 64 
          64 65 
          65 66 
          66 67 
          67 68 
          68 69 
          69 70 
          70 71 
          71 72 
          72 73 
          73 74 
          74 75 
          75 76 
          76 77 
          77 78 
          78 79 
          79 80 
        </DataArray>
        <DataArray type="Int64" Name="offsets" format="ascii">
          2
          4
          6
          8
          10
          12
          14
          16
          18
          20
          22
          24
          26
          28
          30
          32
          34
          36
          38
          40
          42
          44
          46
          48
          50
          52
          54
          56
          58
          60
          62
          64
          66
          68
          70
          72
          74
          76
          78
          80
          82
          84
          86
          88
          90
          92
          94
          96
          98
          100
          102
          104
          106
          108
          110
          112
          114
          116
          118
          120
          122
          124
          126
          128
          130
          132
          134
          136
          138
          140
          142
          144
          146
          148
          150
          152
          154
          156
          158
          160
        </DataArray>
        <DataArray type="Int64" Name="types" format="ascii">
          3
          3
          3
          3
          3
          3
          3
          3
          3
          3
          3
          3
          3
          3
          3
          3
          3
          3
          3
          3
          3
          3
          3
          3
          3
          3
          3
          3
          3
          3
          3
          3
          3
          3
          3
          3
          3
          3
          3
          3
          3
          3
          3
          3
          3
          3
          3
          3
          3
          3
          3
          3
          3
          3
          3
          3
          3
          3
          3
          3
          3
          3
          3
          3
          3
          3
          3
          3
          3
          3
          3
          3
          3
          3
          3
          3
          3
          3
          3
          3
        </DataArray>
      </Cells>
      <PointData>
        <DataArray type="Int64" Name="NodeTag" format="ascii">
          0
          1
          2
          3
          4
          5
          6
          7
          8
          9
          10
          11
          12
          13
          14
          15
          16
          17
          18
          19
          20
          21
          22
          23
          24
          25
          26
          27
          28
          29
          30
          31
          32
          33
          34
          35
          36
          37
          38
          39
          40
          41
          42
          43
          44
          45
          46
          47
          48
          49
          50
          51
          52
          53
          54
          55
          56
          57
          58
          59
          60
          61
          62
          63
          64
          65
          66
          67
          68
          69
          70
          71
          72
          73
          74
          75
          76
          77
          78
          79
          80
        </DataArray>
        <DataArray type="Float64" Name="Velocity" NumberOfComponents="3" format="ascii">
          0.00000e+00 0.00000e+00 0.00000e+00 
          0.00000e+00 0.00000e+00 0.00000e+00 
          0.00000e+00 0.00000e+00 0.00000e+00 
          0.00000e+00 0.00000e+00 0.00000e+00 
          0.00000e+00 0.00000e+00 0.00000e+00 
          0.00000e+00 0.00000e+00 0.00000e+00 
          0.00000e+00 0.00000e+00 0.00000e+00 
          0.00000e+00 0.00000e+00 0.00000e+00 
          0.00000e+00 0.00000e+00 0.00000e+00 
          0.00000e+00 0.00000e+00 0.00000e+00 
          0.00000e+00 0.00000e+00 0.00000e+00 
          0.00000e+00 0.00000e+00 0.00000e+00 
          0.00000e+00 0.00000e+00 0.00000e+00 
          0.00000e+00 0.00000e+00 0.00000e+00 
          0.00000e+00 0.00000e+00 0.00000e+00 
          0.00000e+00 0.00000e+00 0.00000e+00 
          0.00000e+00 0.00000e+00 0.00000e+00 
          0.00000e+00 0.00000e+00 0.00000e+00 
          0.00000e+00 0.00000e+00 0.00000e+00 
          0.00000e+00 0.00000e+00 0.00000e+00 
          0.00000e+00 0.00000e+00 0.00000e+00 
          0.00000e+00 0.00000e+00 0.00000e+00 
          0.00000e+00 0.00000e+00 0.00000e+00 
          0.00000e+00 0.00000e+00 0.00000e+00 
          0.00000e+00 0.00000e+00 0.00000e+00 
          0.00000e+00 0.00000e+00 0.00000e+00 
          0.00000e+00 0.00000e+00 0.00000e+00 
          0.00000e+00 0.00000e+00 0.00000e+00 
          0.00000e+00 0.00000e+00 0.00000e+00 
          0.00000e+00 0.00000e+00 0.00000e+00 
          0.00000e+00 0.00000e+00 0.00000e+00 
          0.00000e+00 0.00000e+00 0.00000e+00 
          0.00000e+00 0.00000e+00 0.00000e+00 
          0.00000e+00 0.00000e+00 0.00000e+00 
          0.00000e+00 0.00000e+00 0.00000e+00 
          0.00000e+00 0.00000e+00 0.00000e+00 
          0.00000e+00 0.00000e+00 0.00000e+00 
          0.00000e+00 0.00000e+00 0.00000e+00 
          0.00000e+00 0.00000e+00 0.00000e+00 
          0.00000e+00 0.00000e+00 0.00000e+00 
          0.00000e+00 0.00000e+00 0.00000e+00 
          0.00000e+00 0.00000e+00 0.00000e+00 
          0.00000e+00 0.00000e+00 0.00000e+00 
          0.00000e+00 0.00000e+00 0.00000e+00 
          0.00000e+00 0.00000e+00 0.00000e+00 
          0.00000e+00 0.00000e+00 0.00000e+00 
          0.00000e+00 0.00000e+00 0.00000e+00 
          0.00000e+00 0.00000e+00 0.00000e+00 
          0.00000e+00 0.00000e+00 0.00000e+00 
          0.00000e+00 0.00000e+00 0.00000e+00 
          0.00000e+00 0.00000e+00 0.00000e+00 
          0.00000e+00 0.00000e+00 0.00000e+00 
          0.00000e+00 0.00000e+00 0.00000e+00 
          0.00000e+00 0.00000e+00 0.00000e+00 
          0.00000e+00 0.00000e+00 0.00000e+00 
          0.00000e+00 0.00000e+00 0.00000e+00 
          0.00000e+00 0.00000e+00 0.00000e+00 
          0.00000e+00 0.00000e+00 0.00000e+00 
          0.00000e+00 0.00000e+00 0.00000e+00 
          0.00000e+00 0.00000e+00 0.00000e+00 
          0.00000e+00 0.00000e+00 0.00000e+00 
          0.00000e+00 0.00000e+00 0.00000e+00 
          0.00000e+00 0.00000e+00 0.00000e+00 
          0.00000e+00 0.00000e+00 0.00000e+00 
          0.00000e+00 0.00000e+00 0.00000e+00 
          0.00000e+00 0.00000e+00 0.00000e+00 
          0.00000e+00 0.00000e+00 0.00000e+00 
          0.00000e+00 0.00000e+00 0.00000e+00 
          0.00000e+00 0.00000e+00 0.00000e+00 
          0.00000e+00 0.00000e+00 0.00000e+00 
          0.00000e+00 0.00000e+00 0.00000e+00 
          0.00000e+00 0.00000e+00 0.00000e+00 
          0.00000e+00 0.00000e+00 0.00000e+00 
          0.00000e+00 0.00000e+00 0.00000e+00 
          0.00000e+00 0.00000e+00 0.00000e+00 
          0.00000e+00 0.00000e+00 0.00000e+00 
          0.00000e+00 0.00000e+00 0.00000e+00 
          0.00000e+00 0.00000e+00 0.00000e+00 
          0.00000e+00 0.00000e+00 0.00000e+00 
          0.00000e+00 0.00000e+00 0.00000e+00 
          0.00000e+00 0.00000e+00 0.00000e+00 
        </DataArray>
        <DataArray type="Float64" Name="Displacement" NumberOfComponents="3" format="ascii">
          0.00000e+00 0.00000e+00 0.00000e+00 
          0.00000e+00 0.00000e+00 0.00000e+00 
          0.00000e+00 0.00000e+00 0.00000e+00 
          0.00000e+00 0.00000e+00 0.00000e+00 
          0.00000e+00 0.00000e+00 0.00000e+00 
          0.00000e+00 0.00000e+00 0.00000e+00 
          0.00000e+00 0.00000e+00 0.00000e+00 
          0.00000e+00 0.00000e+00 0.00000e+00 
          0.00000e+00 0.00000e+00 0.00000e+00 
          0.00000e+00 0.00000e+00 0.00000e+00 
          0.00000e+00 0.00000e+00 0.00000e+00 
          0.00000e+00 0.00000e+00 0.00000e+00 
          0.00000e+00 0.00000e+00 0.00000e+00 
          0.00000e+00 0.00000e+00 0.00000e+00 
          0.00000e+00 0.00000e+00 0.00000e+00 
          0.00000e+00 0.00000e+00 0.00000e+00 
          0.00000e+00 0.00000e+00 0.00000e+00 
          0.00000e+00 0.00000e+00 0.00000e+00 
          0.00000e+00 0.00000e+00 0.00000e+00 
          0.00000e+00 0.00000e+00 0.00000e+00 
          0.00000e+00 0.00000e+00 0.00000e+00 
          0.00000e+00 0.00000e+00 0.00000e+00 
          0.00000e+00 0.00000e+00 0.00000e+00 
          0.00000e+00 0.00000e+00 0.00000e+00 
          0.00000e+00 0.00000e+00 0.00000e+00 
          0.00000e+00 0.00000e+00 0.00000e+00 
          0.00000e+00 0.00000e+00 0.00000e+00 
          0.00000e+00 0.00000e+00 0.00000e+00 
          0.00000e+00 0.00000e+00 0.00000e+00 
          0.00000e+00 0.00000e+00 0.00000e+00 
          0.00000e+00 0.00000e+00 0.00000e+00 
          0.00000e+00 0.00000e+00 0.00000e+00 
          0.00000e+00 0.00000e+00 0.00000e+00 
          0.00000e+00 0.00000e+00 0.00000e+00 
          0.00000e+00 0.00000e+00 0.00000e+00 
          0.00000e+00 0.00000e+00 0.00000e+00 
          0.00000e+00 0.00000e+00 0.00000e+00 
          0.00000e+00 0.00000e+00 0.00000e+00 
          0.00000e+00 0.00000e+00 0.00000e+00 
          0.00000e+00 0.00000e+00 0.00000e+00 
          0.00000e+00 0.00000e+00 0.00000e+00 
          0.00000e+00 0.00000e+00 0.00000e+00 
          0.00000e+00 0.00000e+00 0.00000e+00 
          0.00000e+00 0.00000e+00 0.00000e+00 
          0.00000e+00 0.00000e+00 0.00000e+00 
          0.00000e+00 0.00000e+00 0.00000e+00 
          0.00000e+00 0.00000e+00 0.00000e+00 
          0.00000e+00 0.00000e+00 0.00000e+00 
          0.00000e+00 0.00000e+00 0.00000e+00 
          0.00000e+00 0.00000e+00 0.00000e+00 
          0.00000e+00 0.00000e+00 0.00000e+00 
          0.00000e+00 0.00000e+00 0.00000e+00 
          0.00000e+00 0.00000e+00 0.00000e+00 
          0.00000e+00 0.00000e+00 0.00000e+00 
          0.00000e+00 0.00000e+00 0.00000e+00 
          0.00000e+00 0.00000e+00 0.00000e+00 
          0.00000e+00 0.00000e+00 0.00000e+00 
          0.00000e+00 0.00000e+00 0.00000e+00 
          0.00000e+00 0.00000e+00 0.00000e+00 
          0.00000e+00 0.00000e+00 0.00000e+00 
          0.00000e+00 0.00000e+00 0.00000e+00 
          0.00000e+00 0.00000e+00 0.00000e+00 
          0.00000e+00 0.00000e+00 0.00000e+00 
          0.00000e+00 0.00000e+00 0.00000e+00 
          0.00000e+00 0.00000e+00 0.00000e+00 
          0.00000e+00 0.00000e+00 0.00000e+00 
          0.00000e+00 0.00000e+00 0.00000e+00 
          0.00000e+00 0.00000e+00 0.00000e+00 
          0.00000e+00 0.00000e+00 0.00000e+00 
          0.00000e+00 0.00000e+00 0.00000e+00 
          0.00000e+00 0.00000e+00 0.00000e+00 
          0.00000e+00 0.00000e+00 0.00000e+00 
          0.00000e+00 0.00000e+00 0.00000e+00 
          0.00000e+00 0.00000e+00 0.00000e+00 
          0.00000e+00 0.00000e+00 0.00000e+00 
          0.00000e+00 0.00000e+00 0.00000e+00 
          0.00000e+00 0.00000e+00 0.00000e+00 
          0.00000e+00 0.00000e+00 0.00000e+00 
          0.00000e+00 0.00000e+00 0.00000e+00 
          0.00000e+00 0.00000e+00 0.00000e+00 
          0.00000e+00 0.00000e+00 0.00000e+00 
        </DataArray>
        <DataArray type="Float64" Name="IncrDisplacement" NumberOfComponents="3" format="ascii">
          0.00000e+00 0.00000e+00 0.00000e+00 
          0.00000e+00 0.00000e+00 0.00000e+00 
          0.00000e+00 0.00000e+00 0.00000e+00 
          0.00000e+00 0.00000e+00 0.00000e+00 
          0.00000e+00 0.00000e+00 0.00000e+00 
          0.00000e+00 0.00000e+00 0.00000e+00 
          0.00000e+00 0.00000e+00 0.00000e+00 
          0.00000e+00 0.00000e+00 0.00000e+00 
          0.00000e+00 0.00000e+00 0.00000e+00 
          0.00000e+00 0.00000e+00 0.00000e+00 
          0.00000e+00 0.00000e+00 0.00000e+00 
          0.00000e+00 0.00000e+00 0.00000e+00 
          0.00000e+00 0.00000e+00 0.00000e+00 
          0.00000e+00 0.00000e+00 0.00000e+00 
          0.00000e+00 0.00000e+00 0.00000e+00 
          0.00000e+00 0.00000e+00 0.00000e+00 
          0.00000e+00 0.00000e+00 0.00000e+00 
          0.00000e+00 0.00000e+00 0.00000e+00 
          0.00000e+00 0.00000e+00 0.00000e+00 
          0.00000e+00 0.00000e+00 0.00000e+00 
          0.00000e+00 0.00000e+00 0.00000e+00 
          0.00000e+00 0.00000e+00 0.00000e+00 
          0.00000e+00 0.00000e+00 0.00000e+00 
          0.00000e+00 0.00000e+00 0.00000e+00 
          0.00000e+00 0.00000e+00 0.00000e+00 
          0.00000e+00 0.00000e+00 0.00000e+00 
          0.00000e+00 0.00000e+00 0.00000e+00 
          0.00000e+00 0.00000e+00 0.00000e+00 
          0.00000e+00 0.00000e+00 0.00000e+00 
          0.00000e+00 0.00000e+00 0.00000e+00 
          0.00000e+00 0.00000e+00 0.00000e+00 
          0.00000e+00 0.00000e+00 0.00000e+00 
          0.00000e+00 0.00000e+00 0.00000e+00 
          0.00000e+00 0.00000e+00 0.00000e+00 
          0.00000e+00 0.00000e+00 0.00000e+00 
          0.00000e+00 0.00000e+00 0.00000e+00 
          0.00000e+00 0.00000e+00 0.00000e+00 
          0.00000e+00 0.00000e+00 0.00000e+00 
          0.00000e+00 0.00000e+00 0.00000e+00 
          0.00000e+00 0.00000e+00 0.00000e+00 
          0.00000e+00 0.00000e+00 0.00000e+00 
          0.00000e+00 0.00000e+00 0.00000e+00 
          0.00000e+00 0.00000e+00 0.00000e+00 
          0.00000e+00 0.00000e+00 0.00000e+00 
          0.00000e+00 0.00000e+00 0.00000e+00 
          0.00000e+00 0.00000e+00 0.00000e+00 
          0.00000e+00 0.00000e+00 0.00000e+00 
          0.00000e+00 0.00000e+00 0.00000e+00 
          0.00000e+00 0.00000e+00 0.00000e+00 
          0.00000e+00 0.00000e+00 0.00000e+00 
          0.00000e+00 0.00000e+00 0.00000e+00 
          0.00000e+00 0.00000e+00 0.00000e+00 
          0.00000e+00 0.00000e+00 0.00000e+00 
          0.00000e+00 0.00000e+00 0.00000e+00 
          0.00000e+00 0.00000e+00 0.00000e+00 
          0.00000e+00 0.00000e+00 0.00000e+00 
          0.00000e+00 0.00000e+00 0.00000e+00 
          0.00000e+00 0.00000e+00 0.00000e+00 
          0.00000e+00 0.00000e+00 0.00000e+00 
          0.00000e+00 0.00000e+00 0.00000e+00 
          0.00000e+00 0.00000e+00 0.00000e+00 
          0.00000e+00 0.00000e+00 0.00000e+00 
          0.00000e+00 0.00000e+00 0.00000e+00 
          0.00000e+00 0.00000e+00 0.00000e+00 
          0.00000e+00 0.00000e+00 0.00000e+00 
          0.00000e+00 0.00000e+00 0.00000e+00 
          0.00000e+00 0.00000e+00 0.00000e+00 
          0.00000e+00 0.00000e+00 0.00000e+00 
          0.00000e+00 0.00000e+00 0.00000e+00 
          0.00000e+00 0.00000e+00 0.00000e+00 
          0.00000e+00 0.00000e+00 0.00000e+00 
          0.00000e+00 0.00000e+00 0.00000e+00 
          0.00000e+00 0.00000e+00 0.00000e+00 
          0.00000e+00 0.00000e+00 0.00000e+00 
          0.00000e+00 0.00000e+00 0.00000e+00 
          0.00000e+00 0.00000e+00 0.00000e+00 
          0.00000e+00 0.00000e+00 0.00000e+00 
          0.00000e+00 0.00000e+00 0.00000e+00 
          0.00000e+00 0.00000e+00 0.00000e+00 
          0.00000e+00 0.00000e+00 0.00000e+00 
          0.00000e+00 0.00000e+00 0.00000e+00 
        </DataArray>
        <DataArray type="Float64" Name="Acceleration" NumberOfComponents="3" format="ascii">
          0.00000e+00 0.00000e+00 0.00000e+00 
          0.00000e+00 0.00000e+00 0.00000e+00 
          0.00000e+00 0.00000e+00 0.00000e+00 
          0.00000e+00 0.00000e+00 0.00000e+00 
          0.00000e+00 0.00000e+00 0.00000e+00 
          0.00000e+00 0.00000e+00 0.00000e+00 
          0.00000e+00 0.00000e+00 0.00000e+00 
          0.00000e+00 0.00000e+00 0.00000e+00 
          0.00000e+00 0.00000e+00 0.00000e+00 
          0.00000e+00 0.00000e+00 0.00000e+00 
          0.00000e+00 0.00000e+00 0.00000e+00 
          0.00000e+00 0.00000e+00 0.00000e+00 
          0.00000e+00 0.00000e+00 0.00000e+00 
          0.00000e+00 0.00000e+00 0.00000e+00 
          0.00000e+00 0.00000e+00 0.00000e+00 
          0.00000e+00 0.00000e+00 0.00000e+00 
          0.00000e+00 0.00000e+00 0.00000e+00 
          0.00000e+00 0.00000e+00 0.00000e+00 
          0.00000e+00 0.00000e+00 0.00000e+00 
          0.00000e+00 0.00000e+00 0.00000e+00 
          0.00000e+00 0.00000e+00 0.00000e+00 
          0.00000e+00 0.00000e+00 0.00000e+00 
          0.00000e+00 0.00000e+00 0.00000e+00 
          0.00000e+00 0.00000e+00 0.00000e+00 
          0.00000e+00 0.00000e+00 0.00000e+00 
          0.00000e+00 0.00000e+00 0.00000e+00 
          0.00000e+00 0.00000e+00 0.00000e+00 
          0.00000e+00 0.00000e+00 0.00000e+00 
          0.00000e+00 0.00000e+00 0.00000e+00 
          0.00000e+00 0.00000e+00 0.00000e+00 
          0.00000e+00 0.00000e+00 0.00000e+00 
          0.00000e+00 0.00000e+00 0.00000e+00 
          0.00000e+00 0.00000e+00 0.00000e+00 
          0.00000e+00 0.00000e+00 0.00000e+00 
          0.00000e+00 0.00000e+00 0.00000e+00 
          0.00000e+00 0.00000e+00 0.00000e+00 
          0.00000e+00 0.00000e+00 0.00000e+00 
          0.00000e+00 0.00000e+00 0.00000e+00 
          0.00000e+00 0.00000e+00 0.00000e+00 
          0.00000e+00 0.00000e+00 0.00000e+00 
          0.00000e+00 0.00000e+00 0.00000e+00 
          0.00000e+00 0.00000e+00 0.00000e+00 
          0.00000e+00 0.00000e+00 0.00000e+00 
          0.00000e+00 0.00000e+00 0.00000e+00 
          0.00000e+00 0.00000e+00 0.00000e+00 
          0.00000e+00 0.00000e+00 0.00000e+00 
          0.00000e+00 0.00000e+00 0.00000e+00 
          0.00000e+00 0.00000e+00 0.00000e+00 
          0.00000e+00 0.00000e+00 0.00000e+00 
          0.00000e+00 0.00000e+00 0.00000e+00 
          0.00000e+00 0.00000e+00 0.00000e+00 
          0.00000e+00 0.00000e+00 0.00000e+00 
          0.00000e+00 0.00000e+00 0.00000e+00 
          0.00000e+00 0.00000e+00 0.00000e+00 
          0.00000e+00 0.00000e+00 0.00000e+00 
          0.00000e+00 0.00000e+00 0.00000e+00 
          0.00000e+00 0.00000e+00 0.00000e+00 
          0.00000e+00 0.00000e+00 0.00000e+00 
          0.00000e+00 0.00000e+00 0.00000e+00 
          0.00000e+00 0.00000e+00 0.00000e+00 
          0.00000e+00 0.00000e+00 0.00000e+00 
          0.00000e+00 0.00000e+00 0.00000e+00 
          0.00000e+00 0.00000e+00 0.00000e+00 
          0.00000e+00 0.00000e+00 0.00000e+00 
          0.00000e+00 0.00000e+00 0.00000e+00 
          0.00000e+00 0.00000e+00 0.00000e+00 
          0.00000e+00 0.00000e+00 0.00000e+00 
          0.00000e+00 0.00000e+00 0.00000e+00 
          0.00000e+00 0.00000e+00 0.00000e+00 
          0.00000e+00 0.00000e+00 0.00000e+00 
          0.00000e+00 0.00000e+00 0.00000e+00 
          0.00000e+00 0.00000e+00 0.00000e+00 
          0.00000e+00 0.00000e+00 0.00000e+00 
          0.00000e+00 0.00000e+00 0.00000e+00 
          0.00000e+00 0.00000e+00 0.00000e+00 
          0.00000e+00 0.00000e+00 0.00000e+00 
          0.00000e+00 0.00000e+00 0.00000e+00 
          0.00000e+00 0.00000e+00 0.00000e+00 
          0.00000e+00 0.00000e+00 0.00000e+00 
          0.00000e+00 0.00000e+00 0.00000e+00 
          0.00000e+00 0.00000e+00 0.00000e+00 
        </DataArray>
        <DataArray type="Float64" Name="Pressure" format="ascii">
          0.00000e+00
          0.00000e+00
          0.00000e+00
          0.00000e+00
          0.00000e+00
          0.00000e+00
          0.00000e+00
          0.00000e+00
          0.00000e+00
          0.00000e+00
          0.00000e+00
          0.00000e+00
          0.00000e+00
          0.00000e+00
          0.00000e+00
          0.00000e+00
          0.00000e+00
          0.00000e+00
          0.00000e+00
          0.00000e+00
          0.00000e+00
          0.00000e+00
          0.00000e+00
          0.00000e+00
          0.00000e+00
          0.00000e+00
          0.00000e+00
          0.00000e+00
          0.00000e+00
          0.00000e+00
          0.00000e+00
          0.00000e+00
          0.00000e+00
          0.00000e+00
          0.00000e+00
          0.00000e+00
          0.00000e+00
          0.00000e+00
          0.00000e+00
          0.00000e+00
          0.00000e+00
          0.00000e+00
          0.00000e+00
          0.00000e+00
          0.00000e+00
          0.00000e+00
          0.00000e+00
          0.00000e+00
          0.00000e+00
          0.00000e+00
          0.00000e+00
          0.00000e+00
          0.00000e+00
          0.00000e+00
          0.00000e+00
          0.00000e+00
          0.00000e+00
          0.00000e+00
          0.00000e+00
          0.00000e+00
          0.00000e+00
          0.00000e+00
          0.00000e+00
          0.00000e+00
          0.00000e+00
          0.00000e+00
          0.00000e+00
          0.00000e+00
          0.00000e+00
          0.00000e+00
          0.00000e+00
          0.00000e+00
          0.00000e+00
          0.00000e+00
          0.00000e+00
          0.00000e+00
          0.00000e+00
          0.00000e+00
          0.00000e+00
          0.00000e+00
          0.00000e+00
        </DataArray>
        <DataArray type="Float64" Name="Reaction" NumberOfComponents="3" format="ascii">
          0.00000e+00 0.00000e+00 0.00000e+00 
          0.00000e+00 0.00000e+00 0.00000e+00 
          0.00000e+00 0.00000e+00 0.00000e+00 
          0.00000e+00 0.00000e+00 0.00000e+00 
          0.00000e+00 0.00000e+00 0.00000e+00 
          0.00000e+00 0.00000e+00 0.00000e+00 
          0.00000e+00 0.00000e+00 0.00000e+00 
          0.00000e+00 0.00000e+00 0.00000e+00 
          0.00000e+00 0.00000e+00 0.00000e+00 
          0.00000e+00 0.00000e+00 0.00000e+00 
          0.00000e+00 0.00000e+00 0.00000e+00 
          0.00000e+00 0.00000e+00 0.00000e+00 
          0.00000e+00 0.00000e+00 0.00000e+00 
          0.00000e+00 0.00000e+00 0.00000e+00 
          0.00000e+00 0.00000e+00 0.00000e+00 
          0.00000e+00 0.00000e+00 0.00000e+00 
          0.00000e+00 0.00000e+00 0.00000e+00 
          0.00000e+00 0.00000e+00 0.00000e+00 
          0.00000e+00 0.00000e+00 0.00000e+00 
          0.00000e+00 0.00000e+00 0.00000e+00 
          0.00000e+00 0.00000e+00 0.00000e+00 
          0.00000e+00 0.00000e+00 0.00000e+00 
          0.00000e+00 0.00000e+00 0.00000e+00 
          0.00000e+00 0.00000e+00 0.00000e+00 
          0.00000e+00 0.00000e+00 0.00000e+00 
          0.00000e+00 0.00000e+00 0.00000e+00 
          0.00000e+00 0.00000e+00 0.00000e+00 
          0.00000e+00 0.00000e+00 0.00000e+00 
          0.00000e+00 0.00000e+00 0.00000e+00 
          0.00000e+00 0.00000e+00 0.00000e+00 
          0.00000e+00 0.00000e+00 0.00000e+00 
          0.00000e+00 0.00000e+00 0.00000e+00 
          0.00000e+00 0.00000e+00 0.00000e+00 
          0.00000e+00 0.00000e+00 0.00000e+00 
          0.00000e+00 0.00000e+00 0.00000e+00 
          0.00000e+00 0.00000e+00 0.00000e+00 
          0.00000e+00 0.00000e+00 0.00000e+00 
          0.00000e+00 0.00000e+00 0.00000e+00 
          0.00000e+00 0.00000e+00 0.00000e+00 
          0.00000e+00 0.00000e+00 0.00000e+00 
          0.00000e+00 0.00000e+00 0.00000e+00 
          0.00000e+00 0.00000e+00 0.00000e+00 
          0.00000e+00 0.00000e+00 0.00000e+00 
          0.00000e+00 0.00000e+00 0.00000e+00 
          0.00000e+00 0.00000e+00 0.00000e+00 
          0.00000e+00 0.00000e+00 0.00000e+00 
          0.00000e+00 0.00000e+00 0.00000e+00 
          0.00000e+00 0.00000e+00 0.00000e+00 
          0.00000e+00 0.00000e+00 0.00000e+00 
          0.00000e+00 0.00000e+00 0.00000e+00 
          0.00000e+00 0.00000e+00 0.00000e+00 
          0.00000e+00 0.00000e+00 0.00000e+00 
          0.00000e+00 0.00000e+00 0.00000e+00 
          0.00000e+00 0.00000e+00 0.00000e+00 
          0.00000e+00 0.00000e+00 0.00000e+00 
          0.00000e+00 0.00000e+00 0.00000e+00 
          0.00000e+00 0.00000e+00 0.00000e+00 
          0.00000e+00 0.00000e+00 0.00000e+00 
          0.00000e+00 0.00000e+00 0.00000e+00 
          0.00000e+00 0.00000e+00 0.00000e+00 
          0.00000e+00 0.00000e+00 0.00000e+00 
          0.00000e+00 0.00000e+00 0.00000e+00 
          0.00000e+00 0.00000e+00 0.00000e+00 
          0.00000e+00 0.00000e+00 0.00000e+00 
          0.00000e+00 0.00000e+00 0.00000e+00 
          0.00000e+00 0.00000e+00 0.00000e+00 
          0.00000e+00 0.00000e+00 0.00000e+00 
          0.00000e+00 0.00000e+00 0.00000e+00 
          0.00000e+00 0.00000e+00 0.00000e+00 
          0.00000e+00 0.00000e+00 0.00000e+00 
          0.00000e+00 0.00000e+00 0.00000e+00 
          0.00000e+00 0.00000e+00 0.00000e+00 